User input:
--------------------------------------------------------------

$molecule
0,2
C
C,1,CC
H,1,CH1,2,H1CC
X,1,1.,2,XCC,3,180.,0
H,1,CH2,4,HCX,2,90.,0
H,1,CH2,4,HCX,2,-90.,0
X,2,1.,1,90.,3,0.,0
O,2,CO,7,OCX,1,180.,0

CC=1.51705372
CH1=1.09673202
CH2=1.0950498
CO=1.18915198
H1CC=111.51713621
XCC=122.84016015
HCX=53.57981779
OCX=37.87178741

$end

$comment
neutral
$end

$xc_functional
C PBE   1.00
X wPBE  1.00
$end

$rem
SYMMETRY_DECOMPOSITION	0
LRC_DFT                 true
exchange 		general
BASIS                   g3large
omega			424
JOBTYPE                 opt
mem_static              760
max_scf_cycles          200
scf_final_print         1
sym_ignore              true
$end

--------------------------------------------------------------

   17    -153.1235256114      7.21E-09 Convergence criterion met
 Total energy in the final basis set = -153.1235256114
   12    -153.1244452379      4.23E-09 Convergence criterion met
 Total energy in the final basis set = -153.1244452379
   11    -153.1244680276      6.10E-09 Convergence criterion met
 Total energy in the final basis set = -153.1244680276
   10    -153.1244699224      5.32E-09 Convergence criterion met
 Total energy in the final basis set = -153.1244699224
 Final energy is   -153.124469922365
 **  OPTIMIZATION CONVERGED  **
 Total job time:  260.34s(wall), 94.24s(cpu)
        *  Thank you very much for using Q-Chem.  Have a nice day.  *

User input:
--------------------------------------------------------------

$molecule
READ
$end

$xc_functional
C PBE   1.00
X wPBE  1.00
$end

$rem
SYMMETRY_DECOMPOSITION	0
LRC_DFT                 true
exchange 		general
BASIS                   g3large
omega			424
JOBTYPE                 freq
SCF_GUESS READ
mem_static              760
max_scf_cycles          200
scf_final_print         1
sym_ignore              true
$end

--------------------------------------------------------------

    2    -153.1244698951      1.24E-09 Convergence criterion met
 Total energy in the final basis set = -153.1244698951
    9    -153.1244689642      5.20E-09 Convergence criterion met
 Total energy in the final basis set = -153.1244689642
   10    -153.1244686904      3.75E-09 Convergence criterion met
 Total energy in the final basis set = -153.1244686904
 Total energy in the final basis set = -153.1244696213
   10    -153.1244697844      4.51E-09 Convergence criterion met
 Total energy in the final basis set = -153.1244697844
   10    -153.1244691174      8.00E-09 Convergence criterion met
 Total energy in the final basis set = -153.1244691174
    9    -153.1244684599      7.31E-09 Convergence criterion met
 Total energy in the final basis set = -153.1244684599
   10    -153.1244698807      1.00E-08 Convergence criterion met
 Total energy in the final basis set = -153.1244698807
   10    -153.1244698931      5.84E-09 Convergence criterion met
 Total energy in the final basis set = -153.1244698931
   11    -153.1244693853      5.15E-09 Convergence criterion met
 Total energy in the final basis set = -153.1244693853
   10    -153.1244687146      7.92E-09 Convergence criterion met
 Total energy in the final basis set = -153.1244687146

                    Orbital Energies (a.u.)
 --------------------------------------------------------------

 Alpha MOs
 -- Occupied --
-19.015 -10.214 -10.147  -1.242  -0.931  -0.692  -0.619  -0.603
 -0.602  -0.525  -0.524  -0.320

 Beta MOs
 -- Occupied --
-19.008 -10.205 -10.144  -1.229  -0.919  -0.668  -0.598  -0.589
 -0.585  -0.521  -0.487

          Ground-State Mulliken Net Atomic Charges

     Atom                 Charge (a.u.)    Spin (a.u.)
  --------------------------------------------------------
      1 C                    -0.106471       0.065987
      2 C                    -0.003739       0.683325
      3 H                     0.084045       0.042270
      4 H                     0.097738      -0.012534
      5 H                     0.097738      -0.012534
      6 O                    -0.169312       0.233485
  --------------------------------------------------------
  Sum of atomic charges =     0.000000

                    Cartesian Multipole Moments
 -----------------------------------------------------------------
    Charge (ESU x 10^10)
                 0.0000
    Dipole Moment (Debye)
         X      -0.7671      Y       0.0000      Z      -2.5852
       Tot       2.6966
    Quadrupole Moments (Debye-Ang)
        XX     -19.4516     XY       0.0000     YY     -16.9925
        XZ      -1.8805     YZ       0.0000     ZZ     -24.6404
    Octapole Moments (Debye-Ang^2)
       XXX     -14.8564    XXY       0.0000    XYY      -5.4882
       YYY       0.0000    XXZ     -23.9897    XYZ       0.0000
       YYZ     -19.0874    XZZ      -9.7614    YZZ       0.0000
       ZZZ     -74.5222
    Hexadecapole Moments (Debye-Ang^3)
      XXXX     -56.0169   XXXY       0.0000   XXYY     -12.6240
      XYYY       0.0000   YYYY     -22.7305   XXXZ     -35.3192
      XXYZ       0.0000   XYYZ     -10.0241   YYYZ       0.0000
      XXZZ     -60.5408   XYZZ       0.0000   YYZZ     -45.5918

       Standard Nuclear Orientation (Angstroms)
    I     Atom         X            Y            Z
 ----------------------------------------------------
    1      C       0.001946     0.000000     0.001802
    2      C       0.012488     0.000000     1.497454
    3      H       1.016322     0.000000    -0.396463
    4      H      -0.543427    -0.876903    -0.340888
    5      H      -0.543427     0.876903    -0.340888
    6      O       0.922629     0.000000     2.235716
 ----------------------------------------------------

 Frequency:       110.76                 475.37                 908.33
 Force Cnst:      0.0117                 0.4275                 1.4956
 Red. Mass:       1.6194                 3.2110                 3.0766
 IR Intens:        0.762                  6.699                  2.441
 Frequency:       962.85                1074.61                1375.85
 Force Cnst:      0.7239                 1.2433                 1.3781
 Red. Mass:       1.3254                 1.8274                 1.2356
 IR Intens:        0.069                 15.515                 17.916
 Frequency:      1466.23                1467.51                2018.45
 Force Cnst:      1.3262                 1.3277                30.0238
 Red. Mass:       1.0470                 1.0464                12.5077
 IR Intens:       15.080                 23.606                177.361
 Frequency:      3096.89                3199.90                3205.95
 Force Cnst:      5.8441                 6.6678                 6.6693
 Red. Mass:       1.0342                 1.1053                 1.1013
 IR Intens:        3.039                  4.113                  0.060

 STANDARD THERMODYNAMIC QUANTITIES AT   298.18 K  AND     1.00 ATM

   This Molecule has  0 Imaginary Frequencies
   Zero point vibrational energy:       27.680 kcal/mol

   Atom    1 Element C  Has Mass   12.00000
   Atom    2 Element C  Has Mass   12.00000
   Atom    3 Element H  Has Mass    1.00783
   Atom    4 Element H  Has Mass    1.00783
   Atom    5 Element H  Has Mass    1.00783
   Atom    6 Element O  Has Mass   15.99491
   Molecular Mass:    43.018400 amu
   Principal axes and moments of inertia in atomic units:
                             1           2           3
    Eigenvalues --       20.82331   179.14864   188.90193
          X               0.36293     0.93182     0.00000
          Y               0.00000     0.00000     1.00000
          Z               0.93182    -0.36293     0.00000
   Rotational Symmetry Number is   1
   The Molecule is an Asymmetric Top
   Translational Enthalpy:        0.889 kcal/mol
   Rotational Enthalpy:           0.889 kcal/mol
   Vibrational Enthalpy:         28.371 kcal/mol
   gas constant (RT):             0.593 kcal/mol
   Translational Entropy:        37.204  cal/mol.K
   Rotational Entropy:           21.182  cal/mol.K
   Vibrational Entropy:           4.340  cal/mol.K

   Total Enthalpy:               30.741 kcal/mol
   Total Entropy:                62.726  cal/mol.K

 Total job time:  1784.73s(wall), 680.39s(cpu)
        *  Thank you very much for using Q-Chem.  Have a nice day.  *
