User input:
--------------------------------------------------------------

$molecule
0,2
C
O,1,CO
H,1,CH,2,HCO

CO=1.18271512
CH=1.12830969
HCO=123.65060441

$end

$comment
neutral
$end

$xc_functional
C PBE   1.00
X wPBE  1.00
$end

$rem
SYMMETRY_DECOMPOSITION	0
LRC_DFT                 true
exchange 		general
BASIS                   g3large
omega			533
JOBTYPE                 opt
mem_static              760
max_scf_cycles          200
scf_final_print         1
sym_ignore              true
$end

--------------------------------------------------------------

   19    -113.8106616744      4.47E-09 Convergence criterion met
 Total energy in the final basis set = -113.8106616744
   12    -113.8118684604      7.01E-09 Convergence criterion met
 Total energy in the final basis set = -113.8118684604
   11    -113.8118816787      4.64E-09 Convergence criterion met
 Total energy in the final basis set = -113.8118816787
 Final energy is   -113.811881678695
 **  OPTIMIZATION CONVERGED  **
 Total job time:  65.17s(wall), 49.95s(cpu)
        *  Thank you very much for using Q-Chem.  Have a nice day.  *

User input:
--------------------------------------------------------------

$molecule
READ
$end

$xc_functional
C PBE   1.00
X wPBE  1.00
$end

$rem
SYMMETRY_DECOMPOSITION	0
LRC_DFT                 true
exchange 		general
BASIS                   g3large
omega			533
JOBTYPE                 freq
SCF_GUESS READ
mem_static              760
max_scf_cycles          200
scf_final_print         1
sym_ignore              true
$end

--------------------------------------------------------------

    2    -113.8118816747      1.08E-09 Convergence criterion met
 Total energy in the final basis set = -113.8118816747
   10    -113.8118809873      4.28E-09 Convergence criterion met
 Total energy in the final basis set = -113.8118809873
   10    -113.8118814324      8.63E-09 Convergence criterion met
 Total energy in the final basis set = -113.8118814324
   11    -113.8118816647      9.63E-09 Convergence criterion met
 Total energy in the final basis set = -113.8118816647
 Total energy in the final basis set = -113.8118800252
   10    -113.8118792902      8.13E-09 Convergence criterion met
 Total energy in the final basis set = -113.8118792902
    9    -113.8118813726      4.26E-09 Convergence criterion met
 Total energy in the final basis set = -113.8118813726
   10    -113.8118812599      5.62E-09 Convergence criterion met
 Total energy in the final basis set = -113.8118812599
   11    -113.8118816703      4.55E-09 Convergence criterion met
 Total energy in the final basis set = -113.8118816703
   10    -113.8118816749      5.44E-09 Convergence criterion met
 Total energy in the final basis set = -113.8118816749
   10    -113.8118816115      8.34E-09 Convergence criterion met
 Total energy in the final basis set = -113.8118816115
    9    -113.8118812512      7.45E-09 Convergence criterion met
 Total energy in the final basis set = -113.8118812512

                    Orbital Energies (a.u.)
 --------------------------------------------------------------

 Alpha MOs
 -- Occupied --
-19.092 -10.286  -1.312  -0.801  -0.673  -0.613  -0.597  -0.361

 Beta MOs
 -- Occupied --
-19.085 -10.277  -1.298  -0.764  -0.645  -0.590  -0.544

          Ground-State Mulliken Net Atomic Charges

     Atom                 Charge (a.u.)    Spin (a.u.)
  --------------------------------------------------------
      1 C                     0.021600       0.614976
      2 O                    -0.121173       0.222292
      3 H                     0.099572       0.162732
  --------------------------------------------------------
  Sum of atomic charges =     0.000000

                    Cartesian Multipole Moments
 -----------------------------------------------------------------
    Charge (ESU x 10^10)
                 0.0000
    Dipole Moment (Debye)
         X       1.0506      Y       0.0000      Z      -1.5381
       Tot       1.8626
    Quadrupole Moments (Debye-Ang)
        XX     -11.1717     XY       0.0000     YY     -10.8592
        XZ      -0.7168     YZ       0.0000     ZZ     -13.2782
    Octapole Moments (Debye-Ang^2)
       XXX      -0.8288    XXY       0.0000    XYY      -0.4734
       YYY       0.0000    XXZ      -6.1618    XYZ       0.0000
       YYZ      -5.5878    XZZ      -0.0525    YZZ       0.0000
       ZZZ     -19.8344
    Hexadecapole Moments (Debye-Ang^3)
      XXXX     -14.8388   XXXY       0.0000   XXYY      -4.2229
      XYYY       0.0000   YYYY      -9.6343   XXXZ       0.4990
      XXYZ       0.0000   XYYZ       0.3406   YYYZ       0.0000
      XXZZ     -11.9775   XYZZ       0.0000   YYZZ     -10.9168

       Standard Nuclear Orientation (Angstroms)
    I     Atom         X            Y            Z
 ----------------------------------------------------
    1      C       0.016477     0.000000     0.010931
    2      O      -0.005283     0.000000     1.170991
    3      H       0.928047     0.000000    -0.624433
 ----------------------------------------------------

 Frequency:      1140.14                2064.95                2865.66
 Force Cnst:      0.9621                26.4835                 5.2692
 Red. Mass:       1.2562                10.5416                 1.0891
 IR Intens:       44.084                121.610                 56.531

 STANDARD THERMODYNAMIC QUANTITIES AT   298.18 K  AND     1.00 ATM

   This Molecule has  0 Imaginary Frequencies
   Zero point vibrational energy:        8.679 kcal/mol

   Atom    1 Element C  Has Mass   12.00000
   Atom    2 Element O  Has Mass   15.99491
   Atom    3 Element H  Has Mass    1.00783
   Molecular Mass:    29.002740 amu
   Principal axes and moments of inertia in atomic units:
                             1           2           3
    Eigenvalues --        2.34948    39.43156    41.78105
          X              -0.13015     0.99149     0.00000
          Y               0.00000     0.00000     1.00000
          Z               0.99149     0.13015     0.00000
   Rotational Symmetry Number is   1
   The Molecule is an Asymmetric Top
   Translational Enthalpy:        0.889 kcal/mol
   Rotational Enthalpy:           0.889 kcal/mol
   Vibrational Enthalpy:          8.692 kcal/mol
   gas constant (RT):             0.593 kcal/mol
   Translational Entropy:        36.029  cal/mol.K
   Rotational Entropy:           16.011  cal/mol.K
   Vibrational Entropy:           0.054  cal/mol.K

   Total Enthalpy:               11.062 kcal/mol
   Total Entropy:                52.094  cal/mol.K

 Total job time:  293.36s(wall), 237.31s(cpu)
        *  Thank you very much for using Q-Chem.  Have a nice day.  *
