User input:
--------------------------------------------------------------

$molecule
0,2
C
H,1,CH
H,1,CH,2,120.
H,1,CH,2,120.,3,180.,0

CH=1.08274368

$end

$comment
neutral
$end

$xc_functional
C PBE   1.00
X wPBE  1.00
$end

$rem
SYMMETRY_DECOMPOSITION	0
LRC_DFT                 true
exchange 		general
BASIS                   g3large
omega			460
JOBTYPE                 opt
mem_static              760
max_scf_cycles          200
scf_final_print         1
sym_ignore              true
$end

--------------------------------------------------------------

   12     -39.8294322115      5.43E-09 Convergence criterion met
 Total energy in the final basis set = -39.8294322115
    8     -39.8294753455      2.16E-09 Convergence criterion met
 Total energy in the final basis set = -39.8294753455
    8     -39.8295026653      3.55E-09 Convergence criterion met
 Total energy in the final basis set = -39.8295026653
 Final energy is   -39.8295026652560
 **  OPTIMIZATION CONVERGED  **
 Total job time:  24.26s(wall), 16.64s(cpu)
        *  Thank you very much for using Q-Chem.  Have a nice day.  *

User input:
--------------------------------------------------------------

$molecule
READ
$end

$xc_functional
C PBE   1.00
X wPBE  1.00
$end

$rem
SYMMETRY_DECOMPOSITION	0
LRC_DFT                 true
exchange 		general
BASIS                   g3large
omega			460
JOBTYPE                 freq
SCF_GUESS READ
mem_static              760
max_scf_cycles          200
scf_final_print         1
sym_ignore              true
$end

--------------------------------------------------------------

    2     -39.8295026652      2.75E-10 Convergence criterion met
 Total energy in the final basis set = -39.8295026652
    6     -39.8295015191      5.07E-09 Convergence criterion met
 Total energy in the final basis set = -39.8295015191
    7     -39.8295015192      1.12E-09 Convergence criterion met
 Total energy in the final basis set = -39.8295015192
    7     -39.8295026173      7.04E-09 Convergence criterion met
 Total energy in the final basis set = -39.8295026173
 Total energy in the final basis set = -39.8295023979
    7     -39.8295024661      2.97E-09 Convergence criterion met
 Total energy in the final basis set = -39.8295024661
    7     -39.8295020552      3.25E-09 Convergence criterion met
 Total energy in the final basis set = -39.8295020552
    7     -39.8295022045      4.42E-09 Convergence criterion met
 Total energy in the final basis set = -39.8295022045
    8     -39.8295026600      5.33E-09 Convergence criterion met
 Total energy in the final basis set = -39.8295026600
    8     -39.8295026600      5.27E-09 Convergence criterion met
 Total energy in the final basis set = -39.8295026600
    8     -39.8295023979      4.71E-09 Convergence criterion met
 Total energy in the final basis set = -39.8295023979
    7     -39.8295024661      2.96E-09 Convergence criterion met
 Total energy in the final basis set = -39.8295024661

                    Orbital Energies (a.u.)
 --------------------------------------------------------------

 Alpha MOs
 -- Occupied --
-10.144  -0.858  -0.559  -0.558  -0.371

 Beta MOs
 -- Occupied --
-10.130  -0.807  -0.548  -0.548

          Ground-State Mulliken Net Atomic Charges

     Atom                 Charge (a.u.)    Spin (a.u.)
  --------------------------------------------------------
      1 C                    -0.265156       1.131607
      2 H                     0.088456      -0.043842
      3 H                     0.088383      -0.043873
      4 H                     0.088317      -0.043892
  --------------------------------------------------------
  Sum of atomic charges =     0.000000

                    Cartesian Multipole Moments
 -----------------------------------------------------------------
    Charge (ESU x 10^10)
                 0.0000
    Dipole Moment (Debye)
         X       0.0002      Y       0.0000      Z      -0.0002
       Tot       0.0002
    Quadrupole Moments (Debye-Ang)
        XX      -7.1436     XY       0.0000     YY      -9.0020
        XZ       0.0012     YZ       0.0000     ZZ      -7.1411
    Octapole Moments (Debye-Ang^2)
       XXX       0.0012    XXY       0.0000    XYY       0.0005
       YYY       0.0000    XXZ      -0.9774    XYZ       0.0000
       YYZ       0.0012    XZZ      -0.0006    YZZ       0.0000
       ZZZ       0.9805
    Hexadecapole Moments (Debye-Ang^3)
      XXXX     -14.6188   XXXY       0.0000   XXYY      -4.7619
      XYYY       0.0000   YYYY     -11.3913   XXXZ      -0.0008
      XXYZ       0.0000   XYYZ      -0.0008   YYYZ       0.0000
      XXZZ      -4.8712   XYZZ       0.0000   YYZZ      -4.7618

       Standard Nuclear Orientation (Angstroms)
    I     Atom         X            Y            Z
 ----------------------------------------------------
    1      C       0.000000     0.000000    -0.000010
    2      H       0.000000     0.000000     1.076801
    3      H       0.932550     0.000000    -0.538395
    4      H      -0.932550     0.000000    -0.538395
 ----------------------------------------------------

 Frequency:       541.19                1418.07                1418.53
 Force Cnst:      0.2132                 1.3047                 1.3056
 Red. Mass:       1.2356                 1.1012                 1.1012
 IR Intens:       90.450                  4.966                  4.962
 Frequency:      3175.27                3360.16                3360.38
 Force Cnst:      5.9868                 7.4456                 7.4465
 Red. Mass:       1.0078                 1.1193                 1.1193
 IR Intens:        0.000                  1.644                  1.648

 STANDARD THERMODYNAMIC QUANTITIES AT   298.18 K  AND     1.00 ATM

   This Molecule has  0 Imaginary Frequencies
   Zero point vibrational energy:       18.976 kcal/mol

   Atom    1 Element C  Has Mass   12.00000
   Atom    2 Element H  Has Mass    1.00783
   Atom    3 Element H  Has Mass    1.00783
   Atom    4 Element H  Has Mass    1.00783
   Molecular Mass:    15.023490 amu
   Principal axes and moments of inertia in atomic units:
                             1           2           3
    Eigenvalues --        6.25957     6.25978    12.51935
          X               1.00000     0.00000     0.00000
          Y               0.00000     0.00000     1.00000
          Z               0.00000     1.00000     0.00000
   Rotational Symmetry Number is   1
   The Molecule is an Asymmetric Top
   Translational Enthalpy:        0.889 kcal/mol
   Rotational Enthalpy:           0.889 kcal/mol
   Vibrational Enthalpy:         19.107 kcal/mol
   gas constant (RT):             0.593 kcal/mol
   Translational Entropy:        34.068  cal/mol.K
   Rotational Entropy:           13.959  cal/mol.K
   Vibrational Entropy:           0.596  cal/mol.K

   Total Enthalpy:               21.477 kcal/mol
   Total Entropy:                48.623  cal/mol.K

 Total job time:  145.44s(wall), 111.59s(cpu)
        *  Thank you very much for using Q-Chem.  Have a nice day.  *
