User input:
--------------------------------------------------------------

$molecule
0,2
c1
x1 c1 1.0
x2 c1 1.0 x1 90.0
x3 c1 1.00 x2 90.0 x1 90.0
c2 c1 rc2 x1 90.0 x3 tc2
c3 c1 rc2 x1 90.0 x3 -tc2
h1 c1 rh1 x2 90.0 x3 th1
h2 c2 rh2 c1 ah2 c3 th2
h3 c3 rh2 c1 ah2 c2 -th2
h4 c2 rh4 c1 ah4 h2 th4
h5 c2 rh5 c1 ah5 h2 th5
h6 c3 rh4 c1 ah4 h3 -th4
h7 c3 rh5 c1 ah5 h3 -th5

rc2=1.49278841
tc2=119.36176246
rh1=1.08776261
th1=-13.68721693
rh2=1.09598824
ah2=111.94844128
th2=166.03899954
rh4=1.10606929
ah4=112.23599989
th4=120.01472402
rh5=1.09933549
ah5=111.52123676
th5=-121.14926786

$end

$comment
neutral
$end

$xc_functional
C PBE   1.00
X wPBE  1.00
$end

$rem
SYMMETRY_DECOMPOSITION	0
LRC_DFT                 true
exchange 		general
BASIS                   g3large
omega			349
JOBTYPE                 opt
mem_static              760
max_scf_cycles          200
scf_final_print         1
sym_ignore              true
$end

--------------------------------------------------------------

   13    -118.4218822147      7.54E-09 Convergence criterion met
 Total energy in the final basis set = -118.4218822147
   10    -118.4220876255      4.90E-09 Convergence criterion met
 Total energy in the final basis set = -118.4220876255
    9    -118.4220945219      6.35E-09 Convergence criterion met
 Total energy in the final basis set = -118.4220945219
    9    -118.4221011753      9.47E-09 Convergence criterion met
 Total energy in the final basis set = -118.4221011753
    9    -118.4221082519      9.18E-09 Convergence criterion met
 Total energy in the final basis set = -118.4221082519
   10    -118.4221189317      5.81E-09 Convergence criterion met
 Total energy in the final basis set = -118.4221189317
   10    -118.4221259622      4.15E-09 Convergence criterion met
 Total energy in the final basis set = -118.4221259622
    8    -118.4221275894      8.80E-09 Convergence criterion met
 **  OPTIMIZATION CONVERGED  **
 Total job time:  588.70s(wall), 378.02s(cpu)
        *  Thank you very much for using Q-Chem.  Have a nice day.  *

User input:
--------------------------------------------------------------

$molecule
READ
$end

$xc_functional
C PBE   1.00
X wPBE  1.00
$end

$rem
SYMMETRY_DECOMPOSITION	0
LRC_DFT                 true
exchange 		general
BASIS                   g3large
omega			349
JOBTYPE                 freq
SCF_GUESS READ
mem_static              760
max_scf_cycles          200
scf_final_print         1
sym_ignore              true
$end

--------------------------------------------------------------

 Total energy in the final basis set = -118.4221271637
    8    -118.4221272458      5.74E-09 Convergence criterion met
 Total energy in the final basis set = -118.4221272458
    7    -118.4221275847      6.49E-09 Convergence criterion met
 Total energy in the final basis set = -118.4221275847
    7    -118.4221275633      6.20E-09 Convergence criterion met
 Total energy in the final basis set = -118.4221275633
    7    -118.4221273833      7.16E-09 Convergence criterion met
 Total energy in the final basis set = -118.4221273833
    7    -118.4221272527      8.84E-09 Convergence criterion met
 Total energy in the final basis set = -118.4221272527
    7    -118.4221274401      7.58E-09 Convergence criterion met
 Total energy in the final basis set = -118.4221274401
    7    -118.4221273083      8.27E-09 Convergence criterion met
 Total energy in the final basis set = -118.4221273083

                    Orbital Energies (a.u.)
 --------------------------------------------------------------

 Alpha MOs
 -- Occupied --
-10.078 -10.063 -10.063  -0.910  -0.814  -0.690  -0.568  -0.548
 -0.520  -0.495  -0.460  -0.453  -0.289

 Beta MOs
 -- Occupied --
-10.064 -10.064 -10.064  -0.893  -0.812  -0.666  -0.564  -0.525
 -0.514  -0.486  -0.457  -0.447

          Ground-State Mulliken Net Atomic Charges

     Atom                 Charge (a.u.)    Spin (a.u.)
  --------------------------------------------------------
      1 C                     0.019083       0.985599
      2 C                    -0.300198      -0.060038
      3 C                    -0.299955      -0.060071
      4 H                     0.096634      -0.044129
      5 H                     0.084940       0.002598
      6 H                     0.084946       0.002598
      7 H                     0.076062       0.058561
      8 H                     0.081326       0.028146
      9 H                     0.076045       0.058524
     10 H                     0.081117       0.028212
  --------------------------------------------------------
  Sum of atomic charges =     0.000000

                    Cartesian Multipole Moments
 -----------------------------------------------------------------
    Charge (ESU x 10^10)
                 0.0000
    Dipole Moment (Debye)
         X       0.0001      Y      -0.1524      Z       0.1584
       Tot       0.2198
    Quadrupole Moments (Debye-Ang)
        XX     -20.6069     XY      -0.0009     YY     -20.4604
        XZ      -0.0003     YZ       0.1688     ZZ     -21.6206
    Octapole Moments (Debye-Ang^2)
       XXX       0.0029    XXY      12.4203    XYY       0.0036
       YYY      34.1090    XXZ      -0.5645    XYZ       0.0001
       YYZ      -0.6667    XZZ      -0.0012    YZZ       9.6120
       ZZZ       0.0210
    Hexadecapole Moments (Debye-Ang^3)
      XXXX    -205.9212   XXXY      -0.0061   XXYY     -51.7039
      XYYY      -0.0100   YYYY     -98.9288   XXXZ      -0.0065
      XXYZ      -0.4980   XYYZ      -0.0014   YYYZ       2.3144
      XXZZ     -41.3376   XYZZ       0.0013   YYZZ     -21.0959

       Standard Nuclear Orientation (Angstroms)
    I     Atom         X            Y            Z
 ----------------------------------------------------
    1      C       0.000000     0.003775    -0.012032
    2      C       1.288711    -0.732605     0.012610
    3      C      -1.288711    -0.732605     0.012612
    4      H       0.000000     1.078885     0.131200
    5      H       2.141205    -0.076261    -0.171486
    6      H      -2.141204    -0.076262    -0.171492
    7      H       1.458078    -1.222818     0.983055
    8      H       1.305784    -1.531258    -0.738198
    9      H      -1.458081    -1.222811     0.983059
   10      H      -1.305781    -1.531263    -0.738191
 ----------------------------------------------------

 Frequency:        91.62                  95.06                 339.15
 Force Cnst:      0.0055                 0.0054                 0.1070
 Red. Mass:       1.1116                 1.0234                 1.5793
 IR Intens:        1.609                  0.028                 20.452
 Frequency:       379.02                 906.40                 932.97
 Force Cnst:      0.1422                 1.1710                 0.6119
 Red. Mass:       1.6804                 2.4191                 1.1931
 IR Intens:       11.075                  2.366                  0.057
 Frequency:       942.59                1019.86                1161.28
 Force Cnst:      0.6300                 0.8837                 1.3874
 Red. Mass:       1.2035                 1.4420                 1.7462
 IR Intens:        0.778                  0.083                  0.149
 Frequency:      1176.86                1359.74                1406.15
 Force Cnst:      1.5844                 1.3932                 1.4336
 Red. Mass:       1.9416                 1.2789                 1.2306
 IR Intens:        3.338                  0.097                  6.729
 Frequency:      1421.37                1460.73                1468.70
 Force Cnst:      2.0154                 1.3705                 1.3386
 Red. Mass:       1.6932                 1.0902                 1.0533
 IR Intens:       12.598                  2.224                  0.945
 Frequency:      1470.54                1483.00                3000.54
 Force Cnst:      1.3343                 1.3636                 5.5653
 Red. Mass:       1.0472                 1.0523                 1.0492
 IR Intens:       18.855                  6.547                 22.824
 Frequency:      3004.25                3066.52                3066.84
 Force Cnst:      5.5844                 6.0203                 6.0323
 Red. Mass:       1.0502                 1.0866                 1.0886
 IR Intens:       31.660                 38.132                  2.635
 Frequency:      3135.03                3135.81                3201.36
 Force Cnst:      6.3538                 6.3634                 6.5810
 Red. Mass:       1.0972                 1.0984                 1.0899
 IR Intens:       12.228                 18.412                 18.052

 STANDARD THERMODYNAMIC QUANTITIES AT   298.18 K  AND     1.00 ATM

   This Molecule has  0 Imaginary Frequencies
   Zero point vibrational energy:       55.361 kcal/mol

   Atom    1 Element C  Has Mass   12.00000
   Atom    2 Element C  Has Mass   12.00000
   Atom    3 Element C  Has Mass   12.00000
   Atom    4 Element H  Has Mass    1.00783
   Atom    5 Element H  Has Mass    1.00783
   Atom    6 Element H  Has Mass    1.00783
   Atom    7 Element H  Has Mass    1.00783
   Atom    8 Element H  Has Mass    1.00783
   Atom    9 Element H  Has Mass    1.00783
   Atom   10 Element H  Has Mass    1.00783
   Molecular Mass:    43.054810 amu
   Principal axes and moments of inertia in atomic units:
                             1           2           3
    Eigenvalues --       48.31640   214.07107   240.07587
          X               1.00000     0.00000     0.00000
          Y               0.00000     0.99999    -0.00381
          Z               0.00000     0.00381     0.99999
   Rotational Symmetry Number is   1
   The Molecule is an Asymmetric Top
   Translational Enthalpy:        0.889 kcal/mol
   Rotational Enthalpy:           0.889 kcal/mol
   Vibrational Enthalpy:         56.906 kcal/mol
   gas constant (RT):             0.593 kcal/mol
   Translational Entropy:        37.206  cal/mol.K
   Rotational Entropy:           22.434  cal/mol.K
   Vibrational Entropy:          10.104  cal/mol.K

   Total Enthalpy:               59.276 kcal/mol
   Total Entropy:                69.744  cal/mol.K

 Total job time:  3236.02s(wall), 2086.80s(cpu)
        *  Thank you very much for using Q-Chem.  Have a nice day.  *
