User input:
--------------------------------------------------------------

$molecule
0,2
C
C,1,RCC
H,1,R1,2,A1
X,1,1.,2,X1,3,180.,0
H,1,R2,4,A2,2,90.,0
H,1,R2,4,A2,2,-90.,0
X,2,1.,1,X2,3,0.,0
H,2,R3,7,A3,1,90.,0
H,2,R3,7,A3,1,-90.,0

RCC=1.48936945
R1=1.10529134
R2=1.09701109
R3=1.08546443
A1=112.13113048
X1=129.25454486
A2=54.01302883
X2=171.53419822
A3=58.6932455

$end

$comment
neutral
$end

$xc_functional
C PBE   1.00
X wPBE  1.00
$end

$rem
SYMMETRY_DECOMPOSITION	0
LRC_DFT                 true
exchange 		general
BASIS                   g3large
omega			394
JOBTYPE                 opt
mem_static              760
max_scf_cycles          200
scf_final_print         1
sym_ignore              true
$end

--------------------------------------------------------------

   13     -79.1277501246      5.32E-09 Convergence criterion met
 Total energy in the final basis set = -79.1277501246
   10     -79.1279210642      5.66E-09 Convergence criterion met
 Total energy in the final basis set = -79.1279210642
    9     -79.1279234747      6.80E-09 Convergence criterion met
 Total energy in the final basis set = -79.1279234747
    8     -79.1279236966      6.79E-09 Convergence criterion met
 Total energy in the final basis set = -79.1279236966
 Final energy is   -79.1279236966478
 **  OPTIMIZATION CONVERGED  **
 Total job time:  109.10s(wall), 67.12s(cpu)
        *  Thank you very much for using Q-Chem.  Have a nice day.  *

User input:
--------------------------------------------------------------

$molecule
READ
$end

$xc_functional
C PBE   1.00
X wPBE  1.00
$end

$rem
SYMMETRY_DECOMPOSITION	0
LRC_DFT                 true
exchange 		general
BASIS                   g3large
omega			394
JOBTYPE                 freq
SCF_GUESS READ
mem_static              760
max_scf_cycles          200
scf_final_print         1
sym_ignore              true
$end

--------------------------------------------------------------

    2     -79.1279236403      1.85E-09 Convergence criterion met
 Total energy in the final basis set = -79.1279236403
    8     -79.1279226941      4.17E-09 Convergence criterion met
 Total energy in the final basis set = -79.1279226941
    8     -79.1279227533      8.25E-09 Convergence criterion met
 Total energy in the final basis set = -79.1279227533
 Total energy in the final basis set = -79.1279233797
    7     -79.1279234099      9.82E-09 Convergence criterion met
 Total energy in the final basis set = -79.1279234099
    8     -79.1279236165      5.97E-09 Convergence criterion met
 Total energy in the final basis set = -79.1279236165
    8     -79.1279236451      4.55E-09 Convergence criterion met
 Total energy in the final basis set = -79.1279236451
    8     -79.1279231089      6.27E-09 Convergence criterion met
 Total energy in the final basis set = -79.1279231089
    7     -79.1279231645      7.31E-09 Convergence criterion met
 Total energy in the final basis set = -79.1279231645
    7     -79.1279233940      8.53E-09 Convergence criterion met
 Total energy in the final basis set = -79.1279233940
    7     -79.1279234100      9.76E-09 Convergence criterion met
 Total energy in the final basis set = -79.1279234100

                    Orbital Energies (a.u.)
 --------------------------------------------------------------

 Alpha MOs
 -- Occupied --
-10.104 -10.091  -0.906  -0.748  -0.580  -0.542  -0.513  -0.473
 -0.323

 Beta MOs
 -- Occupied --
-10.092 -10.090  -0.888  -0.719  -0.573  -0.520  -0.505  -0.469

          Ground-State Mulliken Net Atomic Charges

     Atom                 Charge (a.u.)    Spin (a.u.)
  --------------------------------------------------------
      1 C                    -0.185480      -0.081654
      2 C                    -0.212012       1.080903
      3 H                     0.074561       0.059722
      4 H                     0.076046       0.013160
      5 H                     0.076054       0.013163
      6 H                     0.085375      -0.042656
      7 H                     0.085457      -0.042638
  --------------------------------------------------------
  Sum of atomic charges =     0.000000

                    Cartesian Multipole Moments
 -----------------------------------------------------------------
    Charge (ESU x 10^10)
                 0.0000
    Dipole Moment (Debye)
         X       0.1234      Y       0.0002      Z      -0.2905
       Tot       0.3156
    Quadrupole Moments (Debye-Ang)
        XX     -15.2342     XY       0.0000     YY     -13.5353
        XZ       0.2532     YZ      -0.0007     ZZ     -14.7273
    Octapole Moments (Debye-Ang^2)
       XXX       0.1149    XXY       0.0005    XYY      -0.7194
       YYY       0.0014    XXZ     -12.4122    XYZ       0.0000
       YYZ      -8.8894    XZZ       0.3384    YZZ      -0.0029
       ZZZ     -30.3802
    Hexadecapole Moments (Debye-Ang^3)
      XXXX     -24.7751   XXXY       0.0001   XXYY      -9.2854
      XYYY       0.0001   YYYY     -28.5751   XXXZ      -1.0648
      XXYZ       0.0017   XYYZ       0.3482   YYYZ       0.0032
      XXZZ     -29.1871   XYZZ      -0.0003   YYZZ     -22.6670

       Standard Nuclear Orientation (Angstroms)
    I     Atom         X            Y            Z
 ----------------------------------------------------
    1      C       0.000977     0.000000     0.001347
    2      C       0.011555     0.000000     1.482501
    3      H       1.018661     0.000000    -0.409190
    4      H      -0.497754    -0.883663    -0.399546
    5      H      -0.497754     0.883663    -0.399546
    6      H       0.077977    -0.925738     2.038072
    7      H       0.077977     0.925738     2.038072
 ----------------------------------------------------

 Frequency:       106.70                 492.85                 814.77
 Force Cnst:      0.0068                 0.1737                 0.4108
 Red. Mass:       1.0081                 1.2139                 1.0504
 IR Intens:        0.000                 63.747                  2.634
 Frequency:       983.98                1095.11                1193.14
 Force Cnst:      0.7579                 2.0683                 1.2339
 Red. Mass:       1.3285                 2.9272                 1.4711
 IR Intens:        0.590                  0.114                  2.589
 Frequency:      1405.47                1469.69                1485.92
 Force Cnst:      1.4056                 1.4212                 1.3450
 Red. Mass:       1.2077                 1.1168                 1.0339
 IR Intens:        4.771                  3.701                  7.612
 Frequency:      1488.69                3035.57                3114.50
 Force Cnst:      1.4962                 5.7009                 6.1912
 Red. Mass:       1.1459                 1.0500                 1.0833
 IR Intens:        4.304                 18.215                 14.747
 Frequency:      3157.81                3188.34                3290.91
 Force Cnst:      6.4834                 6.2992                 7.1420
 Red. Mass:       1.1035                 1.0517                 1.1193
 IR Intens:       13.550                 10.795                  8.189

 STANDARD THERMODYNAMIC QUANTITIES AT   298.18 K  AND     1.00 ATM

   This Molecule has  0 Imaginary Frequencies
   Zero point vibrational energy:       37.631 kcal/mol

   Atom    1 Element C  Has Mass   12.00000
   Atom    2 Element C  Has Mass   12.00000
   Atom    3 Element H  Has Mass    1.00783
   Atom    4 Element H  Has Mass    1.00783
   Atom    5 Element H  Has Mass    1.00783
   Atom    6 Element H  Has Mass    1.00783
   Atom    7 Element H  Has Mass    1.00783
   Molecular Mass:    29.039150 amu
   Principal axes and moments of inertia in atomic units:
                             1           2           3
    Eigenvalues --       17.32956    78.71153    84.96066
          X               0.01430     0.00000     0.99990
          Y               0.00000     1.00000     0.00000
          Z               0.99990     0.00000    -0.01430
   Rotational Symmetry Number is   1
   The Molecule is an Asymmetric Top
   Translational Enthalpy:        0.889 kcal/mol
   Rotational Enthalpy:           0.889 kcal/mol
   Vibrational Enthalpy:         38.341 kcal/mol
   gas constant (RT):             0.593 kcal/mol
   Translational Entropy:        36.033  cal/mol.K
   Rotational Entropy:           19.389  cal/mol.K
   Vibrational Entropy:           4.462  cal/mol.K

   Total Enthalpy:               40.711 kcal/mol
   Total Entropy:                59.884  cal/mol.K

 Total job time:  961.59s(wall), 569.49s(cpu)
        *  Thank you very much for using Q-Chem.  Have a nice day.  *
