User input:
--------------------------------------------------------------

$molecule
0,2
C
X,1,1.
C,1,CC,2,CCX
C,1,CC,2,CCX,3,120.,0
C,1,CC,2,CCX,3,-120.,0
X,3,1.,1,XCC,2,0.,0
H,3,CH1,1,H1CC,6,180.,0
H,3,CH2,6,HCX,1,90.,0
H,3,CH2,6,HCX,1,-90.,0
X,4,1.,1,XCC,2,0.,0
H,4,CH1,1,H1CC,10,180.,0
H,4,CH2,10,HCX,1,90.,0
H,4,CH2,10,HCX,1,-90.,0
X,5,1.,1,XCC,2,0.,0
H,5,CH1,1,H1CC,14,180.,0
H,5,CH2,14,HCX,1,90.,0
H,5,CH2,14,HCX,1,-90.,0

CC=1.4974949
CH1=1.10709549
CH2=1.09754396
XCC=129.18006387
H1CC=112.18931802
HCX=54.06363192
CCX=96.10000574

$end

$comment
neutral
$end

$xc_functional
C PBE   1.00
X wPBE  1.00
$end

$rem
SYMMETRY_DECOMPOSITION	0
LRC_DFT                 true
exchange 		general
BASIS                   g3large
omega			317
JOBTYPE                 opt
mem_static              760
max_scf_cycles          200
scf_final_print         1
sym_ignore              true
$end

--------------------------------------------------------------

   13    -157.7124991766      7.57E-09 Convergence criterion met
 Total energy in the final basis set = -157.7124991766
   10    -157.7127097770      3.53E-09 Convergence criterion met
 Total energy in the final basis set = -157.7127097770
    8    -157.7127136318      5.78E-09 Convergence criterion met
 Total energy in the final basis set = -157.7127136318
    8    -157.7127140175      4.45E-09 Convergence criterion met
 Total energy in the final basis set = -157.7127140175
 Final energy is   -157.712714017452
 **  OPTIMIZATION CONVERGED  **
 Total job time:  728.16s(wall), 365.52s(cpu)
        *  Thank you very much for using Q-Chem.  Have a nice day.  *

User input:
--------------------------------------------------------------

$molecule
READ
$end

$xc_functional
C PBE   1.00
X wPBE  1.00
$end

$rem
SYMMETRY_DECOMPOSITION	0
LRC_DFT                 true
exchange 		general
BASIS                   g3large
omega			317
JOBTYPE                 freq
SCF_GUESS READ
mem_static              760
max_scf_cycles          200
scf_final_print         1
sym_ignore              true
$end

--------------------------------------------------------------

    2    -157.7127138689      5.52E-10 Convergence criterion met
 Total energy in the final basis set = -157.7127138689
    7    -157.7127129841      6.99E-09 Convergence criterion met
 Total energy in the final basis set = -157.7127129841
    8    -157.7127129204      3.18E-09 Convergence criterion met
 Total energy in the final basis set = -157.7127129204
 Total energy in the final basis set = -157.7127137116
    7    -157.7127137227      4.16E-09 Convergence criterion met
 Total energy in the final basis set = -157.7127137227
    7    -157.7127136470      4.17E-09 Convergence criterion met
 Total energy in the final basis set = -157.7127136470
    7    -157.7127136426      5.51E-09 Convergence criterion met
 Total energy in the final basis set = -157.7127136426
    7    -157.7127134581      4.82E-09 Convergence criterion met
 Total energy in the final basis set = -157.7127134581
    7    -157.7127135530      6.63E-09 Convergence criterion met
 Total energy in the final basis set = -157.7127135530
    7    -157.7127137240      4.64E-09 Convergence criterion met
 Total energy in the final basis set = -157.7127137240
    7    -157.7127137542      4.11E-09 Convergence criterion met
 Total energy in the final basis set = -157.7127137542

                    Orbital Energies (a.u.)
 --------------------------------------------------------------

 Alpha MOs
 -- Occupied --
-10.063 -10.043 -10.043 -10.043  -0.913  -0.799  -0.799  -0.641
 -0.553  -0.544  -0.544  -0.485  -0.485  -0.463  -0.439  -0.439
 -0.266

 Beta MOs
 -- Occupied --
-10.049 -10.044 -10.044 -10.044  -0.897  -0.797  -0.797  -0.620
 -0.540  -0.540  -0.529  -0.477  -0.477  -0.462  -0.434  -0.434

          Ground-State Mulliken Net Atomic Charges

     Atom                 Charge (a.u.)    Spin (a.u.)
  --------------------------------------------------------
      1 C                     0.374279       0.863381
      2 C                    -0.375201      -0.041391
      3 C                    -0.374181      -0.041547
      4 C                    -0.374360      -0.041541
      5 H                     0.077473       0.068371
      6 H                     0.086136       0.009366
      7 H                     0.086139       0.009366
      8 H                     0.077622       0.068263
      9 H                     0.086045       0.009244
     10 H                     0.086116       0.009482
     11 H                     0.077639       0.068295
     12 H                     0.086106       0.009487
     13 H                     0.086186       0.009225
  --------------------------------------------------------
  Sum of atomic charges =     0.000000

                    Cartesian Multipole Moments
 -----------------------------------------------------------------
    Charge (ESU x 10^10)
                 0.0000
    Dipole Moment (Debye)
         X       0.0002      Y       0.0004      Z      -0.2460
       Tot       0.2460
    Quadrupole Moments (Debye-Ang)
        XX     -27.4497     XY       0.0004     YY     -27.4494
        XZ      -0.0007     YZ      -0.0011     ZZ     -28.2042
    Octapole Moments (Debye-Ang^2)
       XXX      -1.6531    XXY       0.0004    XYY       1.6634
       YYY       0.0076    XXZ       5.3331    XYZ      -0.0005
       YYZ       5.3282    XZZ      -0.0057    YZZ      -0.0012
       ZZZ       9.8305
    Hexadecapole Moments (Debye-Ang^3)
      XXXX    -223.1779   XXXY      -0.0002   XXYY     -74.3664
      XYYY      -0.0001   YYYY    -223.0290   XXXZ      -1.7605
      XXYZ       0.0028   XYYZ       1.6727   YYYZ      -0.0028
      XXZZ     -46.6387   XYZZ       0.0011   YYZZ     -46.6599

       Standard Nuclear Orientation (Angstroms)
    I     Atom         X            Y            Z
 ----------------------------------------------------
    1      C       0.000106     0.000000     0.006303
    2      C       1.480390     0.000000    -0.156814
    3      C      -0.740227    -1.281849    -0.158227
    4      C      -0.740227     1.281849    -0.158228
    5      H       1.773524     0.000000    -1.220909
    6      H       1.937345     0.887406     0.293288
    7      H       1.937345    -0.887406     0.293287
    8      H      -0.888612    -1.532970    -1.222683
    9      H      -0.199197    -2.122122     0.288990
   10      H      -1.736319    -1.234788     0.293684
   11      H      -0.888611     1.532970    -1.222683
   12      H      -1.736319     1.234787     0.293683
   13      H      -0.199197     2.122122     0.288991
 ----------------------------------------------------

 Frequency:       124.13                 128.80                 143.74
 Force Cnst:      0.0094                 0.0105                 0.0128
 Red. Mass:       1.0305                 1.0757                 1.0508
 IR Intens:        0.001                  0.006                  0.002
 Frequency:       256.36                 375.85                 377.59
 Force Cnst:      0.0893                 0.1714                 0.1732
 Red. Mass:       2.3056                 2.0592                 2.0623
 IR Intens:        4.585                  0.064                  0.067
 Frequency:       776.79                 925.66                 926.61
 Force Cnst:      1.2212                 0.6252                 0.6273
 Red. Mass:       3.4349                 1.2383                 1.2401
 IR Intens:        1.357                  0.301                  0.288
 Frequency:       957.92                1007.20                1008.29
 Force Cnst:      0.6586                 0.9381                 0.9376
 Red. Mass:       1.2182                 1.5695                 1.5653
 IR Intens:        0.002                  2.725                  2.770
 Frequency:      1083.94                1303.15                1303.99
 Force Cnst:      1.1232                 2.3223                 2.3397
 Red. Mass:       1.6225                 2.3210                 2.3354
 IR Intens:        0.022                  3.725                  3.812
 Frequency:      1386.96                1388.89                1406.73
 Force Cnst:      1.6398                 1.6306                 1.4230
 Red. Mass:       1.4468                 1.4347                 1.2205
 IR Intens:       12.598                 12.709                  2.551
 Frequency:      1450.58                1454.10                1455.64
 Force Cnst:      1.2919                 1.3285                 1.3302
 Red. Mass:       1.0420                 1.0664                 1.0655
 IR Intens:        0.030                  4.712                  4.642
 Frequency:      1474.34                1476.85                1477.38
 Force Cnst:      1.3545                 1.4102                 1.4077
 Red. Mass:       1.0576                 1.0974                 1.0946
 IR Intens:       24.495                  3.276                  3.220
 Frequency:      2965.18                2965.30                2972.93
 Force Cnst:      5.4681                 5.4680                 5.5069
 Red. Mass:       1.0556                 1.0555                 1.0575
 IR Intens:       32.973                 33.302                 53.812
 Frequency:      3062.59                3063.22                3063.51
 Force Cnst:      5.9454                 5.9476                 5.9421
 Red. Mass:       1.0758                 1.0758                 1.0746
 IR Intens:       13.728                 12.986                 35.913
 Frequency:      3108.51                3112.22                3112.51
 Force Cnst:      6.2826                 6.2919                 6.2935
 Red. Mass:       1.1035                 1.1025                 1.1026
 IR Intens:        0.558                 32.896                 33.510

 STANDARD THERMODYNAMIC QUANTITIES AT   298.18 K  AND     1.00 ATM

   This Molecule has  0 Imaginary Frequencies
   Zero point vibrational energy:       73.047 kcal/mol

   Atom    1 Element C  Has Mass   12.00000
   Atom    2 Element C  Has Mass   12.00000
   Atom    3 Element C  Has Mass   12.00000
   Atom    4 Element C  Has Mass   12.00000
   Atom    5 Element H  Has Mass    1.00783
   Atom    6 Element H  Has Mass    1.00783
   Atom    7 Element H  Has Mass    1.00783
   Atom    8 Element H  Has Mass    1.00783
   Atom    9 Element H  Has Mass    1.00783
   Atom   10 Element H  Has Mass    1.00783
   Atom   11 Element H  Has Mass    1.00783
   Atom   12 Element H  Has Mass    1.00783
   Atom   13 Element H  Has Mass    1.00783
   Molecular Mass:    57.070470 amu
   Principal axes and moments of inertia in atomic units:
                             1           2           3
    Eigenvalues --      224.41738   224.49949   413.68267
          X               1.00000    -0.00007    -0.00065
          Y               0.00007     1.00000     0.00000
          Z               0.00065     0.00000     1.00000
   Rotational Symmetry Number is   1
   The Molecule is an Asymmetric Top
   Translational Enthalpy:        0.889 kcal/mol
   Rotational Enthalpy:           0.889 kcal/mol
   Vibrational Enthalpy:         75.289 kcal/mol
   gas constant (RT):             0.593 kcal/mol
   Translational Entropy:        38.047  cal/mol.K
   Rotational Entropy:           24.548  cal/mol.K
   Vibrational Entropy:          13.573  cal/mol.K

   Total Enthalpy:               77.659 kcal/mol
   Total Entropy:                76.168  cal/mol.K

 Total job time:  11008.05s(wall), 5812.54s(cpu)
        *  Thank you very much for using Q-Chem.  Have a nice day.  *
