User input:
--------------------------------------------------------------

$molecule
0,2
C
O,1,CO
H,2,OH,1,HOC
H,1,CH1,2,H1CO,3,PH1,0
H,1,CH2,2,H2CO,3,PH2,0

CO=1.3699812
OH=0.96902921
CH1=1.08886057
CH2=1.08380624
HOC=108.90801576
H1CO=118.50457427
H2CO=112.62604267
PH1=29.28000601
PH2=176.01181272

$end

$comment
neutral
$end

$xc_functional
C PBE   1.00
X wPBE  1.00
$end

$rem
SYMMETRY_DECOMPOSITION	0
LRC_DFT                 true
exchange 		general
BASIS                   g3large
omega			435
JOBTYPE                 opt
mem_static              760
max_scf_cycles          200
scf_final_print         1
sym_ignore              true
$end

--------------------------------------------------------------

   14    -115.0316372894      5.37E-09 Convergence criterion met
 Total energy in the final basis set = -115.0316372894
   11    -115.0322578621      7.76E-09 Convergence criterion met
 Total energy in the final basis set = -115.0322578621
   11    -115.0323205324      4.36E-09 Convergence criterion met
 Total energy in the final basis set = -115.0323205324
   10    -115.0323341037      7.83E-09 Convergence criterion met
 Total energy in the final basis set = -115.0323341037
   10    -115.0323384133      5.85E-09 Convergence criterion met
 Total energy in the final basis set = -115.0323384133
    9    -115.0323387299      5.18E-09 Convergence criterion met
 Total energy in the final basis set = -115.0323387299
 Final energy is   -115.032338729923
 **  OPTIMIZATION CONVERGED  **
 Total job time:  75.58s(wall), 35.17s(cpu)
        *  Thank you very much for using Q-Chem.  Have a nice day.  *

User input:
--------------------------------------------------------------

$molecule
READ
$end

$xc_functional
C PBE   1.00
X wPBE  1.00
$end

$rem
SYMMETRY_DECOMPOSITION	0
LRC_DFT                 true
exchange 		general
BASIS                   g3large
omega			435
JOBTYPE                 freq
SCF_GUESS READ
mem_static              760
max_scf_cycles          200
scf_final_print         1
sym_ignore              true
$end

--------------------------------------------------------------

    2    -115.0323387136      6.47E-10 Convergence criterion met
 Total energy in the final basis set = -115.0323387136
 Total energy in the final basis set = -115.0323384668
    8    -115.0323384592      9.42E-09 Convergence criterion met
 Total energy in the final basis set = -115.0323384592
    8    -115.0323381177      7.43E-09 Convergence criterion met
 Total energy in the final basis set = -115.0323381177
    8    -115.0323381289      8.55E-09 Convergence criterion met
 Total energy in the final basis set = -115.0323381289
    8    -115.0323386300      9.53E-09 Convergence criterion met
 Total energy in the final basis set = -115.0323386300
    8    -115.0323387932      7.34E-09 Convergence criterion met
 Total energy in the final basis set = -115.0323387932
    8    -115.0323385052      5.42E-09 Convergence criterion met
 Total energy in the final basis set = -115.0323385052
    8    -115.0323384875      8.39E-09 Convergence criterion met
 Total energy in the final basis set = -115.0323384875

                    Orbital Energies (a.u.)
 --------------------------------------------------------------

 Alpha MOs
 -- Occupied --
-19.014 -10.166  -1.217  -0.832  -0.676  -0.594  -0.547  -0.489
 -0.305

 Beta MOs
 -- Occupied --
-19.009 -10.153  -1.206  -0.800  -0.665  -0.585  -0.500  -0.480

          Ground-State Mulliken Net Atomic Charges

     Atom                 Charge (a.u.)    Spin (a.u.)
  --------------------------------------------------------
      1 C                    -0.221784       0.986444
      2 O                    -0.223666       0.090832
      3 H                     0.254296      -0.002035
      4 H                     0.092826      -0.036597
      5 H                     0.098328      -0.038643
  --------------------------------------------------------
  Sum of atomic charges =     0.000000

                    Cartesian Multipole Moments
 -----------------------------------------------------------------
    Charge (ESU x 10^10)
                 0.0000
    Dipole Moment (Debye)
         X       1.4708      Y      -0.4794      Z      -0.1905
       Tot       1.5587
    Quadrupole Moments (Debye-Ang)
        XX     -10.3388     XY      -0.4128     YY     -14.2513
        XZ       3.1453     YZ       0.1221     ZZ     -12.6626
    Octapole Moments (Debye-Ang^2)
       XXX       0.2709    XXY       0.0397    XYY      -0.1460
       YYY       1.1993    XXZ      -5.2742    XYZ       0.1446
       YYZ      -7.8664    XZZ       5.3180    YZZ      -0.0368
       ZZZ     -21.5186
    Hexadecapole Moments (Debye-Ang^3)
      XXXX     -18.3228   XXXY       0.0496   XXYY      -6.4192
      XYYY       0.3759   YYYY     -16.9258   XXXZ       1.1999
      XXYZ      -0.1576   XYYZ      -0.7197   YYYZ      -1.0561
      XXZZ     -12.4466   XYZZ      -0.0425   YYZZ     -17.8016

       Standard Nuclear Orientation (Angstroms)
    I     Atom         X            Y            Z
 ----------------------------------------------------
    1      C      -0.013475    -0.047377     0.010169
    2      O       0.010827     0.029129     1.360847
    3      H       0.912228    -0.015714     1.677993
    4      H       0.844986    -0.444313    -0.512172
    5      H      -1.001176    -0.059286    -0.419453
 ----------------------------------------------------

 Frequency:       399.72                 498.33                1064.20
 Force Cnst:      0.1127                 0.1693                 0.7181
 Red. Mass:       1.1971                 1.1574                 1.0761
 IR Intens:       12.621                156.777                 46.783
 Frequency:      1268.01                1363.33                1502.42
 Force Cnst:      3.9548                 1.4075                 1.6324
 Red. Mass:       4.1748                 1.2853                 1.2274
 IR Intens:      124.530                 26.773                 11.434
 Frequency:      3201.84                3342.90                3970.20
 Force Cnst:      6.3238                 7.4115                 9.9045
 Red. Mass:       1.0470                 1.1257                 1.0665
 IR Intens:       14.939                  4.874                 84.705

 STANDARD THERMODYNAMIC QUANTITIES AT   298.18 K  AND     1.00 ATM

   This Molecule has  0 Imaginary Frequencies
   Zero point vibrational energy:       23.747 kcal/mol

   Atom    1 Element C  Has Mass   12.00000
   Atom    2 Element O  Has Mass   15.99491
   Atom    3 Element H  Has Mass    1.00783
   Atom    4 Element H  Has Mass    1.00783
   Atom    5 Element H  Has Mass    1.00783
   Molecular Mass:    31.018400 amu
   Principal axes and moments of inertia in atomic units:
                             1           2           3
    Eigenvalues --        9.21328    59.41438    68.21268
          X               0.08324     0.98299     0.16372
          Y               0.07823    -0.17023     0.98229
          Z               0.99345    -0.06896    -0.09107
   Rotational Symmetry Number is   1
   The Molecule is an Asymmetric Top
   Translational Enthalpy:        0.889 kcal/mol
   Rotational Enthalpy:           0.889 kcal/mol
   Vibrational Enthalpy:         24.117 kcal/mol
   gas constant (RT):             0.593 kcal/mol
   Translational Entropy:        36.229  cal/mol.K
   Rotational Entropy:           18.263  cal/mol.K
   Vibrational Entropy:           1.762  cal/mol.K

   Total Enthalpy:               26.487 kcal/mol
   Total Entropy:                56.255  cal/mol.K

 Total job time:  272.29s(wall), 144.30s(cpu)
        *  Thank you very much for using Q-Chem.  Have a nice day.  *
