User input:
--------------------------------------------------------------

$molecule
0,2
Si
X,1,1.
H,1,R,2,BETA
H,1,R,2,BETA,3,120.,0
H,1,R,2,BETA,3,-120.,0

 R=1.48898721
 BETA=108.02552928

$end

$comment
neutral
$end

$xc_functional
C PBE   1.00
X wPBE  1.00
$end

$rem
SYMMETRY_DECOMPOSITION	0
LRC_DFT                 true
exchange 		general
BASIS                   g3large
omega			389
JOBTYPE                 opt
mem_static              760
max_scf_cycles          200
scf_final_print         1
sym_ignore              true
$end

--------------------------------------------------------------

   13    -291.1290126095      5.32E-09 Convergence criterion met
 Total energy in the final basis set = -291.1290126095
   10    -291.1290772911      2.74E-09 Convergence criterion met
 Total energy in the final basis set = -291.1290772911
    7    -291.1290774073      5.39E-09 Convergence criterion met
 Total energy in the final basis set = -291.1290774073
 Final energy is   -291.129077407319
 **  OPTIMIZATION CONVERGED  **
 Total job time:  36.98s(wall), 27.05s(cpu)
        *  Thank you very much for using Q-Chem.  Have a nice day.  *

User input:
--------------------------------------------------------------

$molecule
READ
$end

$xc_functional
C PBE   1.00
X wPBE  1.00
$end

$rem
SYMMETRY_DECOMPOSITION	0
LRC_DFT                 true
exchange 		general
BASIS                   g3large
omega			389
JOBTYPE                 freq
IDERIV 1
SCF_GUESS READ
mem_static              760
max_scf_cycles          200
scf_final_print         1
sym_ignore              true
$end

--------------------------------------------------------------

    2    -291.1290774069      5.27E-10 Convergence criterion met
 Total energy in the final basis set = -291.1290774069
    7    -291.1290768813      8.19E-09 Convergence criterion met
 Total energy in the final basis set = -291.1290768813
    8    -291.1290769305      2.84E-09 Convergence criterion met
 Total energy in the final basis set = -291.1290769305
    8    -291.1290769053      1.92E-09 Convergence criterion met
 Total energy in the final basis set = -291.1290769053
 Total energy in the final basis set = -291.1290773176
    8    -291.1290774103      3.92E-09 Convergence criterion met
 Total energy in the final basis set = -291.1290774103
    8    -291.1290773263      3.39E-09 Convergence criterion met
 Total energy in the final basis set = -291.1290773263
    8    -291.1290772824      4.48E-09 Convergence criterion met
 Total energy in the final basis set = -291.1290772824
    7    -291.1290771473      6.04E-09 Convergence criterion met
 Total energy in the final basis set = -291.1290771473
    8    -291.1290771910      5.60E-09 Convergence criterion met
 Total energy in the final basis set = -291.1290771910
    7    -291.1290773178      7.27E-09 Convergence criterion met
 Total energy in the final basis set = -291.1290773178
    8    -291.1290774103      3.92E-09 Convergence criterion met
 Total energy in the final basis set = -291.1290774103

                    Orbital Energies (a.u.)
 --------------------------------------------------------------

 Alpha MOs
 -- Occupied --
-65.620  -5.281  -3.688  -3.682  -3.682  -0.686  -0.475  -0.475
 -0.332

 Beta MOs
 -- Occupied --
-65.617  -5.278  -3.680  -3.680  -3.679  -0.655  -0.469  -0.469

          Ground-State Mulliken Net Atomic Charges

     Atom                 Charge (a.u.)    Spin (a.u.)
  --------------------------------------------------------
      1 Si                    0.082491       0.971603
      2 H                    -0.027423       0.009466
      3 H                    -0.027503       0.009470
      4 H                    -0.027565       0.009461
  --------------------------------------------------------
  Sum of atomic charges =     0.000000

                    Cartesian Multipole Moments
 -----------------------------------------------------------------
    Charge (ESU x 10^10)
                 0.0000
    Dipole Moment (Debye)
         X       0.0003      Y      -0.0006      Z      -0.0380
       Tot       0.0380
    Quadrupole Moments (Debye-Ang)
        XX     -15.7051     XY       0.0003     YY     -15.7057
        XZ       0.0000     YZ      -0.0001     ZZ     -16.2379
    Octapole Moments (Debye-Ang^2)
       XXX      -0.5346    XXY      -0.0006    XYY       0.5383
       YYY      -0.0018    XXZ       1.5558    XYZ      -0.0002
       YYZ       1.5563    XZZ       0.0014    YZZ      -0.0013
       ZZZ       2.7953
    Hexadecapole Moments (Debye-Ang^3)
      XXXX     -41.7553   XXXY       0.0014   XXYY     -13.9193
      XYYY       0.0011   YYYY     -41.7585   XXXZ      -0.3499
      XXYZ       0.0010   XYYZ       0.3477   YYYZ       0.0029
      XXZZ     -12.5358   XYZZ       0.0001   YYZZ     -12.5359

       Standard Nuclear Orientation (Angstroms)
    I     Atom         X            Y            Z
 ----------------------------------------------------
    1      Si     -0.000046     0.000000    -0.008819
    2      H       1.411580     0.000000    -0.457824
    3      H      -0.705767    -1.222453    -0.457809
    4      H      -0.705767     1.222453    -0.457809
 ----------------------------------------------------

 Frequency:       776.81                 935.75                 937.90
 Force Cnst:      0.3923                 0.5389                 0.5414
 Red. Mass:       1.1033                 1.0446                 1.0447
 IR Intens:       58.351                 58.680                 58.810
 Frequency:      2219.25                2252.39                2256.20
 Force Cnst:      2.9473                 3.1511                 3.1629
 Red. Mass:       1.0157                 1.0542                 1.0546
 IR Intens:        8.136                107.731                107.883

 STANDARD THERMODYNAMIC QUANTITIES AT   298.18 K  AND     1.00 ATM

   This Molecule has  0 Imaginary Frequencies
   Zero point vibrational energy:       13.407 kcal/mol

   Atom    1 Element Si Has Mass   27.97693
   Atom    2 Element H  Has Mass    1.00783
   Atom    3 Element H  Has Mass    1.00783
   Atom    4 Element H  Has Mass    1.00783
   Molecular Mass:    31.000420 amu
   Principal axes and moments of inertia in atomic units:
                             1           2           3
    Eigenvalues --       12.72103    12.72108    21.51338
          X               0.00330     0.99999     0.00004
          Y               0.99999    -0.00330     0.00000
          Z               0.00000    -0.00004     1.00000
   Rotational Symmetry Number is   1
   The Molecule is an Asymmetric Top
   Translational Enthalpy:        0.889 kcal/mol
   Rotational Enthalpy:           0.889 kcal/mol
   Vibrational Enthalpy:         13.520 kcal/mol
   gas constant (RT):             0.593 kcal/mol
   Translational Entropy:        36.227  cal/mol.K
   Rotational Entropy:           15.906  cal/mol.K
   Vibrational Entropy:           0.470  cal/mol.K

   Total Enthalpy:               15.890 kcal/mol
   Total Entropy:                52.603  cal/mol.K

 Total job time:  235.08s(wall), 179.71s(cpu)
        *  Thank you very much for using Q-Chem.  Have a nice day.  *
