User input:
--------------------------------------------------------------

$molecule
0,2
Be
H,1,RBEH

RBEH=1.34944423

$end

$comment
neutral
$end

$xc_functional
C PBE   1.00
X wPBE  1.00
$end

$rem
SYMMETRY_DECOMPOSITION	0
LRC_DFT                 true
exchange 		general
BASIS                   g3large
omega			495
JOBTYPE                 opt
mem_static              760
max_scf_cycles          200
scf_final_print         1
sym_ignore              true
$end

--------------------------------------------------------------

   12     -15.2360422497      2.93E-09 Convergence criterion met
 Total energy in the final basis set = -15.2360422497
    8     -15.2360491972      3.10E-09 Convergence criterion met
 Total energy in the final basis set = -15.2360491972
    8     -15.2360559903      7.47E-09 Convergence criterion met
 Total energy in the final basis set = -15.2360559903
 Final energy is   -15.2360559902813
 **  OPTIMIZATION CONVERGED  **
 Total job time:  14.80s(wall), 11.10s(cpu)
        *  Thank you very much for using Q-Chem.  Have a nice day.  *

User input:
--------------------------------------------------------------

$molecule
READ
$end

$xc_functional
C PBE   1.00
X wPBE  1.00
$end

$rem
SYMMETRY_DECOMPOSITION	0
LRC_DFT                 true
exchange 		general
BASIS                   g3large
omega			495
JOBTYPE                 freq
SCF_GUESS READ
mem_static              760
max_scf_cycles          200
scf_final_print         1
sym_ignore              true
$end

--------------------------------------------------------------

    2     -15.2360559903      7.58E-10 Convergence criterion met
 Total energy in the final basis set = -15.2360559903
    7     -15.2360559906      1.99E-09 Convergence criterion met
 Total energy in the final basis set = -15.2360559906
    7     -15.2360559904      3.98E-09 Convergence criterion met
 Total energy in the final basis set = -15.2360559904
    7     -15.2360559905      2.82E-09 Convergence criterion met
 Total energy in the final basis set = -15.2360559905
 Total energy in the final basis set = -15.2360556760
    8     -15.2360557641      2.93E-09 Convergence criterion met
 Total energy in the final basis set = -15.2360557641
    8     -15.2360559905      7.83E-09 Convergence criterion met
 Total energy in the final basis set = -15.2360559905
    7     -15.2360559904      3.99E-09 Convergence criterion met
 Total energy in the final basis set = -15.2360559904
    7     -15.2360559904      2.83E-09 Convergence criterion met
 Total energy in the final basis set = -15.2360559904
    7     -15.2360559905      3.96E-09 Convergence criterion met
 Total energy in the final basis set = -15.2360559905
    8     -15.2360557640      7.82E-09 Convergence criterion met
 Total energy in the final basis set = -15.2360557640
    8     -15.2360556760      2.93E-09 Convergence criterion met
 Total energy in the final basis set = -15.2360556760

                    Orbital Energies (a.u.)
 --------------------------------------------------------------

 Alpha MOs
 -- Occupied --
 -4.147  -0.486  -0.314

 Beta MOs
 -- Occupied --
 -4.138  -0.466

          Ground-State Mulliken Net Atomic Charges

     Atom                 Charge (a.u.)    Spin (a.u.)
  --------------------------------------------------------
      1 Be                    0.071151       0.908186
      2 H                    -0.071151       0.091814
  --------------------------------------------------------
  Sum of atomic charges =     0.000000

                    Cartesian Multipole Moments
 -----------------------------------------------------------------
    Charge (ESU x 10^10)
                 0.0000
    Dipole Moment (Debye)
         X       0.0000      Y       0.0000      Z      -0.2424
       Tot       0.2424
    Quadrupole Moments (Debye-Ang)
        XX      -6.5804     XY       0.0000     YY      -6.5804
        XZ       0.0000     YZ       0.0000     ZZ     -10.9257
    Octapole Moments (Debye-Ang^2)
       XXX       0.0000    XXY       0.0000    XYY       0.0000
       YYY       0.0000    XXZ      -0.8102    XYZ       0.0000
       YYZ      -0.8102    XZZ       0.0000    YZZ       0.0000
       ZZZ      -3.5371
    Hexadecapole Moments (Debye-Ang^3)
      XXXX     -12.2221   XXXY       0.0000   XXYY      -4.0740
      XYYY       0.0000   YYYY     -12.2221   XXXZ       0.0000
      XXYZ       0.0000   XYYZ       0.0000   YYYZ       0.0000
      XXZZ      -8.6430   XYZZ       0.0000   YYZZ      -8.6430

       Standard Nuclear Orientation (Angstroms)
    I     Atom         X            Y            Z
 ----------------------------------------------------
    1      Be      0.000000     0.000000     0.003625
    2      H       0.000000     0.000000     1.345819
 ----------------------------------------------------

 Frequency:      2100.94
 Force Cnst:      2.8781
 Red. Mass:       1.1067
 IR Intens:      152.560

 STANDARD THERMODYNAMIC QUANTITIES AT   298.18 K  AND     1.00 ATM

   This Molecule has  0 Imaginary Frequencies
   Zero point vibrational energy:        3.003 kcal/mol

   Atom    1 Element Be Has Mass    9.01218
   Atom    2 Element H  Has Mass    1.00783
   Molecular Mass:    10.020010 amu
   Principal axes and moments of inertia in atomic units:
                             1           2           3
    Eigenvalues --        0.00000     5.83147     5.83147
          X               0.00000     0.00000     1.00000
          Y               0.00000     1.00000     0.00000
          Z               1.00000     0.00000     0.00000
   Rotational Symmetry Number is   1
   The Molecule is a Symmetric Top
   Translational Enthalpy:        0.889 kcal/mol
   Rotational Enthalpy:           0.889 kcal/mol
   Vibrational Enthalpy:          3.004 kcal/mol
   gas constant (RT):             0.593 kcal/mol
   Translational Entropy:        32.861  cal/mol.K
   Rotational Entropy:          -42.776  cal/mol.K
   Vibrational Entropy:           0.001  cal/mol.K

   Total Enthalpy:                5.374 kcal/mol
   Total Entropy:                -9.914  cal/mol.K

 Total job time:  38.37s(wall), 37.60s(cpu)
        *  Thank you very much for using Q-Chem.  Have a nice day.  *
